% Model:              moire_potential_wavefunction.mph
% Version:            COMSOL 5.5.0.306
% Date:               Feb 13 2023, 11:04
% Dimension:          2
% Nodes:              1333
% Expressions:        2
% Description:        Normalized wave function, Potential energy
% Length unit:        nm
% X                       Y                        schr.Psi (1) @ lambda=1  schr.V (J) @ lambda=1
0                         7.279411764705869        2.2095735868539214E8     -5.9874817705639065E-21
0.19103501554068486       7.38970588235294         2.2095733309174013E8     -5.987481770563917E-21
0                         7.5                      2.2204884432638443E8     -6.0562276266240005E-21
0.3820700310813697        7.279411764705881        2.177394398935599E8      -5.783585260060223E-21
0.19154956493382658       7.166246502314332        2.187565111033047E8      -5.848228955296438E-21
0                         7.058823529411752        2.1773947633985066E8     -5.783585260060206E-21
0.5731050466220547        7.1691176470588225       2.1255987966923866E8     -5.451481546231214E-21
0.38478160767220854       7.05075431932897         2.1440839282233575E8     -5.570556849917336E-21
0.19140894545209794       6.939357640911316        2.1438555262173685E8     -5.569090807931704E-21
0                         6.838235294117636        2.125599232965033E8      -5.45148154623119E-21
0.7641400621627394        7.058823529411764        2.0567757279086217E8     -5.0024800227368316E-21
0.5777560925270893        6.946503230186483        2.0842265242874512E8     -5.182633855039386E-21
0.392799709723013         6.803887114729947        2.084477104079509E8      -5.1842741344433834E-21
0.1793218643719331        6.718191746836573        2.083579813668977E8      -5.178411119156632E-21
0                         6.617647058823519        2.0567759671983507E8     -5.0024800227368045E-21
0.7744324668684739        6.847560918755665        2.0094414749016586E8     -4.6883313522057315E-21
0.9551750777034246        6.948529411764706        1.9742419393358013E8     -4.451870897941713E-21
0.5977281984109865        6.745541765756803        2.0281406296620965E8     -4.8128867747470665E-21
0.49006984669920395       6.628866705733491        2.0143647451372993E8     -4.721136938498228E-21
0.3285314129275723        6.597994394356005        2.029086894896122E8      -4.819179298501026E-21
0.16263483493372727       6.5034448307389034       2.0105414425104466E8     -4.695682071788188E-21
0                         6.397058823529402        1.9742417323052955E8     -4.4518708979416815E-21
0.7881822939121249        6.645141842746682        1.9499200537787893E8     -4.286783448622525E-21
0.9662262640398919        6.740842220974774        1.9224318599003652E8     -4.099064322730865E-21
1.1462100932441095        6.838235294117646        1.8817841569744816E8     -3.81840450520789E-21
0.6374330382467749        6.557901359533141        1.960234140216434E8      -4.356771350077191E-21
0.4777345693076392        6.463466234757615        1.958669486334896E8      -4.346167531094601E-21
0.32834062813703146       6.385875285672749        1.95044417348536E8       -4.290363082304355E-21
0.1664980541634435        6.286096713751041        1.9239195639310488E8     -4.1092729557195035E-21
0                         6.1764705882352855       1.881783949397327E8      -3.818404505207858E-21
0.8079445940849567        6.441225935750906        1.8779681319037625E8     -3.7912754376122636E-21
0.9789259945661423        6.534740837881482        1.8591747560028067E8     -3.6603066153563206E-21
1.1548671892026452        6.630847768633669        1.8278613819334427E8     -3.440244903142203E-21
1.3372451087847945        6.727941176470588        1.783391419724545E8      -3.123652782780723E-21
0.6519585398628961        6.3497496074182225       1.8821583577403772E8     -3.820358999897447E-21
0.4938319069745281        6.260388054494116        1.8768710187163544E8     -3.783661228810363E-21
0.33545616977040066       6.168673603477333        1.8599955896815684E8     -3.666069724181482E-21
0.16943151333343462       6.066000089374492        1.8284970691059688E8     -3.4447463578016E-21
0                         5.955882352941169        1.7833915008742544E8     -3.1236527827806913E-21
0.8265408570223897        6.233644347540608        1.797369650093732E8      -3.2223567580633814E-21
0.9951372717977707        6.3277992903710505       1.7859418176542985E8     -3.140828304473386E-21
1.1674224967514348        6.423175186207387        1.7631212303576934E8     -2.9770542076159293E-21
1.3436064192958708        6.520328456336571        1.7292881788003978E8     -2.7317725439445818E-21
1.5282801243254793        6.617647058823528        1.6830052108171123E8     -2.39127466730462E-21
0.6682662735410876        6.141871712432951        1.7967353996453395E8     -3.2178401563217518E-21
0.8435407434406534        6.024917778273708        1.7118556057981965E8     -2.601671999325953E-21
0.5084230483340498        6.048545476377648        1.7858238132573545E8     -3.14000417347918E-21
0.3421841533428904        5.948448289567051        1.7628456822347227E8     -2.9750865371385854E-21
0.17332663919717026       5.844293017953218        1.728417114123678E8      -2.7254212274289887E-21
0                         5.735294117647052        1.683005333663039E8      -2.391274667304589E-21
1.0104889677374727        6.119464989704631        1.7066363909674677E8     -2.5634696923986712E-21
1.1804276194573584        6.2147079719243505       1.6912364360389492E8     -2.45036689643163E-21
1.3544032791854992        6.311088025874337        1.665615551378777E8      -2.2607343156109237E-21
1.533607440678633         6.408585249351848        1.6298225023328197E8     -1.9926328509844027E-21
1.7193151398661646        6.50735294117647         1.5843118261756545E8     -1.6462104171113905E-21
1.0246098110329758        5.910230894345076        1.6242593814696333E8     -1.9463454363557826E-21
0.6830994185472797        5.931070049402478        1.7064841271152022E8     -2.5623684066584077E-21
0.8594914130397354        5.815377804088338        1.6243253143981862E8     -1.946857390312061E-21
0.5169323370108365        5.832023923100698        1.690727838382142E8      -2.4466303882954714E-21
0.34854167733229374       5.730286630406285        1.664938795043933E8      -2.255701393518178E-21
0.1773532841405592        5.626257493819701        1.629916143405734E8      -1.99334291193166E-21
0                         5.514705882352935        1.5843117646920303E8     -1.6462104171113597E-21
1.1933417199180951        6.005607772161599        1.615066174769797E8      -1.8771656602553502E-21
1.3653405941259582        6.1017357517715345       1.5968569558344838E8     -1.7393995705841146E-21
1.5421206748765464        6.1989420685441985       1.569558083356655E8      -1.5308939135208489E-21
1.724004609369077         6.29725291708023         1.5336828998433957E8     -1.2531792203616969E-21
1.9103501554068494        6.39705882352941         1.490592587554735E8      -9.138323016352855E-22
1.2055166746868724        5.795902748878379        1.5374083104382718E8     -1.2756380107906313E-21
1.035279347375025         5.7001142729637975       1.5419768970131996E8     -1.3109322173927207E-21
0.692894644192225         5.716557608813237        1.6146671859800258E8     -1.874156576155022E-21
0.8697235964616054        5.601886304276096        1.537205354543045E8      -1.2740667186095882E-21
0.524781572193565         5.615868445721934        1.5961817355238047E8     -1.734258110804492E-21
0.3544259616368882        5.512974788081564        1.5692380884313107E8     -1.5284314693041487E-21
0.1796191710160671        5.406419840228882        1.5340320688935342E8     -1.2559094495002009E-21
0                         5.294117647058818        1.4905925508785662E8     -9.138323016352616E-22
1.3765309134755164        5.892098397447483        1.5254130141986987E8     -1.182857394575617E-21
1.5512179235143895        5.989065108117604        1.5055979102689528E8     -1.0284954886902576E-21
1.7309111030421398        6.087163119810947        1.478097258385537E8      -8.118924333374515E-22
1.915192624534587         6.186543347415982        1.443817212819846E8      -5.379109954314124E-22
2.1013851709475344        6.286764705882353        1.4046360033884093E8     -2.1908057920812147E-22
1.387675730978783         5.6820664389037          1.4537348972137317E8     -6.082071460281403E-22
1.2170344319657176        5.585490646053766        1.4606570099670446E8     -6.6288259846304625E-22
1.0482823108252346        5.488518321837295        1.4608003424661136E8     -6.6404766872148E-22
0.7018710244156107        5.501818327504217        1.5249017975193235E8     -1.178858544062206E-21
0.879736953952607         5.388248481214171        1.453482439893656E8      -6.061700736374873E-22
0.5322583329162556        5.400024104777342        1.5052152324076024E8     -1.0254718567198888E-21
0.35728150620621674       5.293461531506939        1.4777104268924108E8     -8.088098413535514E-22
0.17987256282965203       5.184505395619666        1.4437553815170434E8     -5.374105545195968E-22
0                         5.073529411764701        1.4046360209249288E8     -2.1908057920809763E-22
1.5609185519114377        5.779013869702739        1.4402321756902888E8     -5.0105856170159605E-22
1.7383966737001062        5.876795716738513        1.4201630023683122E8     -3.4040240871708073E-22
1.9202600731171697        5.9756478169631135       1.3940754217984843E8     -1.2899241093733455E-22
2.105979511192779         6.07586152896612         1.362999265444788E8      1.2680782566560284E-22
2.2924201864882194        6.176470588235293        1.328707634905932E8      4.143858135257044E-22
1.5709014684655365        5.568690669171577        1.375669558418322E8      3.4774287863860465E-23
1.398296109356331         5.471567018700083        1.3841126160484812E8     -3.3261876904120704E-23
1.2271564185720585        5.374775075039342        1.3873309992703295E8     -5.923513161568389E-23
1.0582378497112257        5.274950783218658        1.3840380519693086E8     -3.263149763226841E-23
0.7105913498909356        5.287238988250078        1.43997370427412E8       -4.98944685058561E-22
0.8891152719436217        5.174480266351106        1.3755884223878333E8     3.549070241002888E-23
0.5361316898903268        5.181456520209117        1.4196630993829975E8     -3.3631719889272813E-22
0.35968962845835606       5.073876106116472        1.393749608137628E8      -1.2630596162674328E-22
0.18033801917890943       4.963705641524809        1.362864702323674E8      1.2793208582539207E-22
0                         4.852941176470583        1.3287076452529763E8     4.14385813525721E-22
1.746762803796594         5.666344893146499        1.3618627664927885E8     1.4675157700502255E-22
1.9269598085264716        5.764940934004315        1.342912354199904E8      3.0201841931589444E-22
2.1111434451613094        5.864658052525045        1.3195292335712303E8     4.962058098486763E-22
2.2972416050353317        5.965192331979588        1.2929716573642226E8     7.204493279492575E-22
2.4834552020289045        6.0661764705882355       1.264567234064496E8      9.649949383208254E-22
1.7555510910156291        5.455677016339085        1.3051519865707342E8     6.336958406289423E-22
1.5806793502949752        5.357947429358997        1.3138986316032566E8     5.622982851587486E-22
1.4083422995668344        5.260287482735073        1.3183940753189503E8     5.257520264144031E-22
1.2371978707473104        5.161580936265095        1.3184451490439701E8     5.253236804055772E-22
1.0676624242535964        5.061626850867735        1.313958950844758E8      5.618320496589483E-22
0.7152967533785405        5.069556319410855        1.3614907202507457E8     1.4989191575260217E-22
0.8944222261469128        4.95753811370171         1.3049580504968266E8     6.3541491560530385E-22
0.5396707619354659        4.962936298157512        1.3426254072379485E8     3.044553648764348E-22
0.3607224646881337        4.85345715571539         1.3193493959867574E8     4.977380753666209E-22
0.18063588600400282       4.743002777102277        1.2929339707355718E8     7.207743899756026E-22
0                         4.632352941176467        1.2645672307474588E8     9.649949383208395E-22
1.9340935631971938        5.55406636870089         1.292332419579175E8      7.391998257631647E-22
2.11671431796029          5.653447442783452        1.275845083764999E8      8.764867752204153E-22
2.3021694925991127        5.753741096414315        1.2565214490829457E8     1.039815531617934E-21
2.488453105439394         5.854644999685507        1.2354367862997746E8     1.2212974942214253E-21
2.6744902175695895        5.955882352941175        1.213518374422697E8      1.4139964618152087E-21
1.9416999615186217        5.343042750706693        1.243886070562995E8      1.1689823658188759E-21
1.7644383060605209        5.244666528705583        1.2517026157680476E8     1.1052901292901332E-21
1.5899333863190852        5.146711901304842        1.2566036682120533E8     1.0655462747917607E-21
1.4171518071387994        5.04849391450806         1.2584268279401124E8     1.0506878398895898E-21
1.2463029235943535        4.948484706833085        1.2567009905913942E8     1.064731591249675E-21
1.0735027069120022        4.845318417214059        1.2516684218909597E8     1.1056617516621257E-21
0.7196625730672771        4.851834318850305        1.2921262057633923E8     7.410285775291368E-22
0.8993526430078006        4.740554282733708        1.2438117638018163E8     1.1697182603238806E-21
0.5408365358615675        4.742653294694917        1.2755808487353002E8     8.787828162534695E-22
0.36126216365811603       4.632800338251434        1.2564340393980174E8     1.0405807864038008E-21
0.18071635578257242       4.522282845440193        1.2354418022834902E8     1.2212536696381345E-21
0                         4.41176470588235         1.2135183690077414E8     1.4139964618152166E-21
2.122778908162324         5.442202254879359        1.2333378869541545E8     1.255821805735714E-21
2.307266806363931         5.542274995518937        1.2205713626300181E8     1.3623976922483157E-21
2.4934162037659435        5.64303643420806         1.206361085701736E8      1.4831411014706587E-21
2.6795629136671204        5.7442128067053595       1.1914828346886997E8     1.612348418645727E-21
2.865525233110274         5.845588235294118        1.1764750174759555E8     1.7461001756442188E-21
2.129309311394921         5.23087111128467         1.1932736250014244E8     1.6223295779358319E-21
1.949548572342942         5.131772324996462        1.1989486168184467E8     1.5779788476043838E-21
1.7729857349984315        5.0332048194571515       1.2029391076405446E8     1.5470252250982835E-21
1.5981823044813268        4.934690753438187        1.2051512903608488E8     1.5297351466423955E-21
1.4256319145625984        4.835202303830544        1.205196382251779E8      1.529349613705273E-21
1.252664286437684         4.732776072419274        1.2029750093166386E8     1.546767306971623E-21
1.0790079480645547        4.629166868558506        1.1990136196377192E8     1.5774909942603425E-21
0.7210296919970445        4.631886152687302        1.233110823235221E8      1.2578479056677496E-21
0.9011767294532189        4.521026431671217        1.193135643034801E8      1.6236107370718019E-21
0.5418283595268432        4.522410218564722        1.2204425393115734E8     1.3635444689184703E-21
0.3614665757407351        4.412093926396923        1.2063489331674348E8     1.4832496558163256E-21
0.18076978878908864       4.301616352080488        1.1914962262702964E8     1.6122280418744915E-21
0                         4.191176470588234        1.176475013005753E8      1.746100175644224E-21
2.312603793809289         5.330788311383661        1.186211873081062E8      1.6782547604793352E-21
2.4983276053820482        5.431434707152247        1.1782609020188542E8     1.742379388156501E-21
2.6845989150272693        5.532512225082987        1.1699915949895851E8     1.810734170523453E-21
2.870616201878281         5.633850221431746        1.161820224192722E8      1.880561871013262E-21
3.056560248650959         5.735294117647057        1.1540300018587667E8     1.9499966861479145E-21
2.3182567218957595        5.119213943758594        1.1543967836702408E8     1.9777655891013045E-21
2.1361676710540936        5.019380821686627        1.1567447057829587E8     1.9646154224187098E-21
1.957269774512922         4.920160416101429        1.1586721732504745E8     1.953607470458499E-21
1.7806931850583763        4.821226335335468        1.1600199167243528E8     1.945514311456026E-21
1.6057757164509041        4.722623194768715        1.1607470375680436E8     1.9402810556684522E-21
1.4321143479971985        4.620050068468817        1.1600421701156473E8     1.9453523787106843E-21
1.258394317129477         4.51706613896518         1.1587606874728881E8     1.9528781996449265E-21
1.0812239456900243        4.409931285451977        1.1566901028876923E8     1.9651668183834917E-21
0.7224058172205369        4.412005447795531        1.1860899840506224E8     1.6793638868103985E-21
0.9030171724925042        4.301613311348941        1.1543238125375466E8     1.978454787749832E-21
0.5421003351768142        4.30175776711987         1.1782143862027167E8     1.742794191870579E-21
0.3615572241503827        4.191401661849249        1.1700030575234266E8     1.8106289058401935E-21
0.18080511802890087       4.080975308235772        1.1618283459001398E8     1.880487587631074E-21
0                         3.970588235294117        1.1540299987872942E8     1.9499966861479164E-21
2.503282826141782         5.219801145423372        1.1519266354186381E8     1.9912830140237457E-21
2.6895305022625995        5.320833389956836        1.1496949890072112E8     2.003035009365404E-21
2.8756783561974917        5.422110432884736        1.1479712906364308E8     2.0116884579135544E-21
3.0616497444005635        5.523531557486465        1.146885282728778E8      2.016960835246762E-21
3.247595264191644         5.625                    1.1465131781804751E8     2.018742542208E-21
2.5080415696998073        5.007947106632695        1.1280412738895895E8     2.2224411811890534E-21
2.324230369730867         4.907537883402219        1.1259484589938653E8     2.2517261244555806E-21
2.1430101840380966        4.807650110584363        1.1246528235677023E8     2.2721633427508608E-21
1.9638245325627641        4.708037417415815        1.1240027113724758E8     2.284276011813082E-21
1.7870946753567283        4.6085032924224025       1.1238080574319719E8     2.2892339781313945E-21
1.6121484571376763        4.507376820668716        1.1237874916464083E8     2.28944479515379E-21
1.4378105276048423        4.404650681229546        1.1240377296922053E8     2.283990694087597E-21
1.2612458426707314        4.298569441370405        1.1246442626550509E8     2.272290213266593E-21
1.083527061746281         4.191059494521742        1.125924212212892E8      2.2519790494553723E-21
0.7228529655856328        4.191483101976518        1.1518764870012493E8     1.9917336124944436E-21
0.9036693504596239        4.081222246276938        1.1280102254197575E8     2.2227040672311004E-21
0.5423497954564549        4.081123124252377        1.1496908258662401E8     2.0030687452729654E-21
0.3616122566995539        3.9707277278719055       1.1479785982068141E8     2.011619614180887E-21
0.1808274842313845        3.8603491291532794       1.1468872947528623E8     2.0169420267376852E-21
0                         3.75                     1.1465131757838444E8     2.018742542208E-21
2.694434590760126         5.109135851442698        1.1311252094478844E8     2.1836231798624863E-21
2.880680634916055         5.210385848138837        1.1353149649961197E8     2.135541056452277E-21
3.066723692222446         5.311773912718249        1.1405975959137134E8     2.079430123989346E-21
3.2526848358443936        5.413231168017354        1.1468849483109997E8     2.0169639933813615E-21
3.4386302797323283        5.514705882352942        1.1540300018087238E8     1.9499966861479175E-21
2.6994501764210472        4.897388644149337        1.1147239030449568E8     2.3472112835003273E-21
2.5133040055522398        4.79616682593796         1.1071718671910854E8     2.4289262774422365E-21
2.330288276159114         4.695732076275952        1.1015340441153872E8     2.4918011170232487E-21
2.149542667077071         4.595646002010358        1.0976851213980721E8     2.5358783160160247E-21
1.9700330831345563        4.495604712508555        1.0955488944016857E8     2.5610102301618218E-21
1.7930238197816624        4.395656090187812        1.094976239312886E8      2.5680821436637468E-21
1.6176991889230548        4.2924046291442135       1.0955649195485161E8     2.5608688089263843E-21
1.4413931576139214        4.187106345212089        1.0976977060516168E8     2.5357889640809194E-21
1.2642071765917948        4.080507795660015        1.101533508115288E8      2.4918423936566272E-21
1.0842542302073264        3.970703795784642        1.1071753785511397E8     2.4288555919317816E-21
0.7231412922240188        3.970824046874589        1.1311177976667477E8     2.183681528240926E-21
0.9039439887338137        3.8605479716340088       1.1147301312995256E8     2.3471372880441423E-21
0.542420897587153         3.8604417201116097       1.1353194283873893E8     2.135494917555634E-21
0.3616515634220992        3.750078814735458        1.1405990690056874E8     2.0794149684379215E-21
0.18084025732692044       3.6397346538692177       1.1468842393977165E8     2.016970249461448E-21
0                         3.5294117647058822       1.1540299990844983E8     1.9499966861479152E-21
2.8856726822272147        4.998653321854757        1.1241485980205299E8     2.2485509406528864E-21
3.071778717412369         5.100022548765875        1.135306372171333E8      2.1356218070964846E-21
3.2577713252353226        5.201463985177829        1.14796573802866E8       2.0117406735924222E-21
3.443721312318871         5.3029358779655755       1.1618180843325402E8     1.8805818167802232E-21
3.629665295273013         5.404411764705883        1.1764750174294358E8     1.746100175644226E-21
2.8907143665042874        4.786893063041538        1.1146923612312557E8     2.3475111196816087E-21
2.704671507103711         4.685624820876138        1.1008479423052244E8     2.4889467623056424E-21
2.519040713753295         4.584408477304976        1.0897828639242287E8     2.6044644248310483E-21
2.3361573543257887        4.483779808064272        1.0816425823696108E8     2.6910270218606754E-21
2.1548967282242426        4.383216942916762        1.076341239535536E8      2.74823113187204E-21
1.9755950443268173        4.282598684239222        1.0738018557643305E8     2.7759429334664448E-21
1.7985765176910733        4.181174959000291        1.0738623457380973E8     2.775345638677736E-21
1.6218864702639253        4.075842636105041        1.0763621317696042E8     2.748029986725845E-21
1.4449449082985903        3.9698394944973256       1.0816368398401308E8     2.6911165098295826E-21
1.265193580408751         3.8603930092783423       1.0897943891245876E8     2.6043416794791373E-21
1.084762728659157         3.75024047580071         1.1008632493718302E8     2.4887883048903127E-21
0.7232339881704327        3.7501515902858866       1.1241576940635453E8     2.2484572094561202E-21
0.9040610731255332        3.639859290899567        1.1147102100671081E8     2.3473315021373333E-21
0.5424938911267548        3.639779162410042        1.1353088513385211E8     2.135596116293365E-21
0.3616761770711438        3.529451539110292        1.1479645270160352E8     2.01175078730161E-21
0.18084688258433412       3.419130607014897        1.1618168856037652E8     1.8805926064300632E-21
0                         3.3088235294117645       1.1764750131700982E8     1.746100175644221E-21
3.0768400787053674        4.888266845365968        1.1310810984477268E8     2.1840371142745057E-21
3.2628533850017187        4.989699405364747        1.149655533233371E8      2.0034022475068096E-21
3.4488136251105184        5.091165409723993        1.169968120119315E8      1.8109508104938457E-21
3.634757481816052         5.192641349727518        1.1914704516139273E8     1.6124608862132308E-21
3.8207003108136965        5.294117647058824        1.213518374776876E8      1.4139964618152197E-21
3.0819621930875503        4.676484567535993        1.1279331160788488E8     2.2234571416183306E-21
2.895807449603605         4.575127542917127        1.1070902535728975E8     2.429710240108382E-21
2.709758042740648         4.4737753570210055       1.0897297210198496E8     2.604999078159619E-21
2.5241987364831546        4.372478780935154        1.0761639010079725E8     2.7443691449459136E-21
2.3410519652673516        4.271521808087247        1.0665888522859985E8     2.844114843795312E-21
2.1595153133146474        4.1704692208148515       1.0609383647879855E8     2.9035621351793396E-21
1.9803698870943136        4.068956367525581        1.059119232964424E8      2.9228144000013317E-21
1.8031525364483714        3.965256901014856        1.0609710856269832E8     2.9032295431801085E-21
1.6255525126085413        3.8592734877614747       1.066601612899928E8      2.8439915085450788E-21
1.4460495229296677        3.7499940441565576       1.0761874399989568E8     2.7441265327162012E-21
1.2656899042228615        3.6399031473861236       1.0897519592422004E8     2.604774364923462E-21
1.084926107522666         3.529551913127899        1.1071129658547889E8     2.4294847556379328E-21
0.7233113969977759        3.5294926976821404       1.1310879107441692E8     2.183968531065243E-21
0.9041573476921613        3.4191992169709247       1.1279385708334212E8     2.223400642130628E-21
0.5425177470216479        3.419156494246081        1.1496554410549437E8     2.0034012852605523E-21
0.36169138503921094       3.308841220163777        1.1699661220630126E8     1.8109684966051716E-21
0.18085028657957392       3.198534596535285        1.19146944789333E8       1.6124698464809875E-21
0                         3.088235294117647        1.2135183680056648E8     1.4139964618152108E-21
3.267940373110885         4.7779345274820395       1.151800082765653E8      1.9924649976961824E-21
3.4539078312802496        4.879394510331132        1.1781445527656661E8     1.743446212726183E-21
3.6398526644302223        4.980869737638527        1.2062759782717581E8     1.4839082522174506E-21
3.8257944928520344        5.0823468595495          1.235387944301372E8      1.2217301842034672E-21
4.011735326354382         5.183823529411766        1.2645672378830808E8     9.649949383208421E-22
3.2730421132279157        4.566162990479961        1.1542055881639923E8     1.979608657890709E-21
3.087001820960932         4.464739204448904        1.1258003401908462E8     2.2532244519815326E-21
2.9009132089322325        4.363338272605399        1.1014093089999767E8     2.4931129177503304E-21
2.7149235974617567        4.261912244645744        1.0815319328727265E8     2.692207837272733E-21
2.5294135671089206        4.160469258708046        1.0665209583548702E8     2.844836835203345E-21
2.3461363446114296        4.0589195649325855       1.0565885798302566E8     2.9469733508774756E-21
2.1647182654365267        3.9571117797644075       1.0516810181338073E8     2.997793427919648E-21
1.985514463590235         3.8543031043049667       1.0516968753836273E8     2.997631850149438E-21
1.8067911780019315        3.748703206230549        1.0565964991873692E8     2.946890337199506E-21
1.6271359376544134        3.639670330943344        1.066537006440687E8      2.844671988672911E-21
1.446705204273293         3.5295364919443437       1.0815496672944282E8     2.692031826312127E-21
1.2658460474465925        3.4192246870378438       1.1014329449741976E8     2.492881216627858E-21
1.0850243914020972        3.3088956932191667       1.1258129926847495E8     2.2531011004936355E-21
0.7233630838500592        3.308862077472339        1.151801132995904E8      1.99245304896737E-21
0.9042153053675404        3.1985674005567413       1.1542052487036787E8     1.9796096860928147E-21
0.5425405952202734        3.198545982317           1.1781421093428607E8     1.7434676630548073E-21
0.3617000516470608        3.08824217681941         1.206273759126919E8      1.4839279305392734E-21
0.1808518887682965        2.977943052895577        1.2353868233102651E8     1.22174003947499E-21
0                         2.8676470588235294       1.2645672280507033E8     9.649949383208288E-22
3.459006367032316         4.6676222228739475       1.1859765807174079E8     1.6804370586765918E-21
3.6449545736313134        4.769094645783688        1.2203245961241116E8     1.3646204174942403E-21
3.830896012693764         4.87057284417399         1.2563029308762984E8     1.0417379180829353E-21
4.016834383075049         4.972051857406535        1.2928278623281117E8     7.216894557781906E-22
4.202770341895064         5.073529411764708        1.3287076516191007E8     4.143858135257261E-22
3.4641167328145603        4.455843150399927        1.1930825695337354E8     1.6242256142355208E-21
3.2781434274713184        4.354390129951111        1.1566518835429692E8     1.9656921720930084E-21
3.092114528030667         4.2529600649295025       1.1246144230196838E8     2.272763792224689E-21
2.9060597187442223        4.151445387865552        1.097663154064784E8      2.5363050220441358E-21
2.7200630568681685        4.049783916517825        1.0763165794232391E8     2.7486173333748862E-21
2.534878173938174         3.947693231325669        1.0609607463201584E8     2.903404923866079E-21
2.3506168838975           3.84523521130158         1.051749762706625E8      2.997111809947325E-21